% Model:              Stress_3point_XMED.mph
% Version:            COMSOL 6.3.0.420
% Date:               Jul 4 2025, 11:01
% Dimension:          2
% Nodes:              27907
% Expressions:        3
% Description:        Surface
% X                       Y                        Stress tensor, yy-component u                        v
0.0052506357909553525     0                        -6.746994844773947          9.035759255553728E-7     6.557620082581856E-8
0.005246499697946128      7.656404900481456E-6     -2.309280828917451          8.896734252795734E-7     5.785658130610282E-8
0.005242363604936904      1.531280980096291E-5     4.858411267996217           8.784296749763884E-7     5.0462651754766956E-8
0.00523822751192768       2.2969214701444367E-5    11.766913946087518          8.698446746458176E-7     4.3394412171810956E-8
0.0052420905273035685     0                        -5.309435660808793          9.022231483333792E-7     5.18315708972347E-8
0.005237954434294344      7.656404900481456E-6     9.029809106378728           8.881946930434193E-7     4.194252299276055E-8
0.005233818341285119      1.531280980096291E-5     25.34081295420656           8.768249877260734E-7     3.2379165056666244E-8
0.0052335452636517845     0                        13.846359907895636          9.005683815532022E-7     2.997283728862852E-8
0.00522940917064256       7.656404900481456E-6     41.31345902319555           8.864139712490815E-7     1.7914360999395927E-8
0.0052250000000000005     0                        56.15610228971568           8.986116252148423E-7     0
0.005278275977011479      0                        -0.4908905572951099         9.035340514529383E-7     1.0619275526445115E-7
0.005273891446080344      8.104771183329072E-6     0.1966027270251583          8.92111339365527E-7      9.984079055937977E-8
0.0052695069151492075     1.6209542366658143E-5    0.8664543020270158          8.810631012856263E-7     9.316718368657372E-8
0.005265122384218071      2.4314313549987218E-5    1.3503697945384834          8.703893372132366E-7     8.617193464603298E-8
0.005269062581659437      0                        -1.6706348470947345         9.035258401677733E-7     9.330199111790862E-8
0.005264678050728301      8.104771183329072E-6     0.3384906519620994          8.914107529744046E-7     8.667515595834484E-8
0.005260293519797165      1.6209542366658143E-5    2.0716593270723984          8.796701397885463E-7     7.972667863104635E-8
0.005259849186307395      0                        -1.4788367648771703         9.035397982019181E-7     7.976313963836442E-8
0.005255464655376258      8.104771183329072E-6     2.091891337334043           8.907323359025918E-7     7.286143402430821E-8
0.005247192469357811      2.3417580984291986E-5    5.750125527053979           8.698137165225784E-7     5.871493859324192E-8
0.0052513285623670344     1.576117608381053E-5     3.6496333671282346          8.78943651226278E-7      6.562534132458513E-8
0.005256157426787941      2.3865947267139602E-5    2.8794160627667265          8.69995270711718E-7      7.297411275131593E-8
0.00530868786011267       0                        -0.07045717842405076        9.041758388207248E-7     1.4563389022185912E-7
0.0053038434719675        8.715491848940859E-6     0.0737452368919499          8.929322623472003E-7     1.392580468899002E-7
0.005298999083822329      1.7430983697881717E-5    0.1863540577980931          8.817540140987084E-7     1.327425144185763E-7
0.005294154695677158      2.6146475546822576E-5    0.2100359423297421          8.706410940752492E-7     1.2608729280788751E-7
0.005298550565745607      0                        -0.3494339769024462         9.039769569129376E-7     1.3264927596176984E-7
0.005293706177600436      8.715491848940859E-6     0.020240486125716838        8.924957677421359E-7     1.2617700705657693E-7
0.005288861789455265      1.7430983697881717E-5    0.541038395827542           8.810799067963665E-7     1.1956504901201907E-7
0.0052884132713785425     0                        -0.43780397641718893        9.037630277903419E-7     1.1950223097596718E-7
0.005283568883233372      8.715491848940859E-6     0.36795951227051327         8.920442259222629E-7     1.1293353649754028E-7
0.005274799821371101      2.4925034215599005E-5    0.4047620845551572          8.705942325239801E-7     1.0009152822194079E-7
0.005279184352302236      1.6820263032269934E-5    0.13462618887693303         8.811319922193662E-7     1.066733534436079E-7
0.005284477258524129      2.553575488121079E-5     0.02441803624042683         8.706781514779843E-7     1.1339664760922562E-7
0.005325943677469965      2.8219542661532394E-5    0.07252070427657227         8.697336874235319E-7     1.6661950642531285E-7
0.005320191738350867      1.88130284410216E-5      0.1544144769332256          8.810191793719301E-7     1.5966708829276558E-7
0.005314439799231768      9.4065142205108E-6       0.08963034899550058         8.924998965043276E-7     1.5267188289161433E-7
0.005331345579757888      1.88130284410216E-5      0.07660735325825617         8.814523837659468E-7     1.735961347955736E-7
0.0053255936406387885     9.4065142205108E-6       0.019075486026236273        8.928551458784307E-7     1.6663221474559703E-7
0.00531984170151969       0                        -0.1190759796652637         9.044531331749137E-7     1.5962550742701645E-7
0.00533674748204581       9.4065142205108E-6       0.03070222371422325         8.931917185680497E-7     1.8050800562289245E-7
0.00533099554292671       0                        -0.10450759208676172        9.047117508446191E-7     1.7353258365548658E-7
0.0053421493843337315     0                        -0.026200780412432834       9.049516918298406E-7     1.8735511890726933E-7
0.005304751022941427      2.683749791839252E-5     0.029184333904680275        8.70406305538137E-7      1.3981224535989575E-7
0.005309595411086597      1.8122006069451657E-5    0.03029677832739027         8.814204369087162E-7     1.4631190869543753E-7
0.005315347350205696      2.7528520289962458E-5    -0.053242613281182294       8.701038366542312E-7     1.5332298323237086E-7
0.005360960420812762      3.090438420259465E-5     0.02964323816534493         8.67674907220971E-7      2.0993992694614245E-7
0.005354690075319752      2.0602922801729772E-5    0.0537518829667909          8.800053854765301E-7     2.0242838659404407E-7
0.005348419729826742      1.0301461400864886E-5    0.02971015730113577         8.924309803461532E-7     1.94900117247753E-7
0.005366962401137276      2.0602922801729772E-5    0.035744669160734675        8.803470108263271E-7     2.1748987728529433E-7
0.0053606920556442655     1.0301461400864886E-5    0.010919313398506174        8.927408971876758E-7     2.0997477163985506E-7
0.0053544217101512545     0                        -0.04593828680156205        9.05229900163088E-7      2.024429370002231E-7
0.005372964381461788      1.0301461400864886E-5    0.014056617683603428        8.930369962161057E-7     2.2500792621882143E-7
0.005366694035968777      0                        -0.04368004402544496        9.054942906832437E-7     2.1748925528004132E-7
0.005378966361786301      0                        -0.01272333679234157        9.057448633903068E-7     2.3249407374672378E-7
0.005337615925250898      2.9114489841886484E-5    -0.002448410686611508       8.690870971604022E-7     1.8114569419432254E-7
0.00534301782753882       1.9707975621375686E-5    0.018986424954950287        8.807487195234339E-7     1.8805528449250876E-7
0.00534928817303183       3.000943702224057E-5     -0.03120182124529309        8.68400837092882E-7      1.9558583436793242E-7
0.005399565079716275      3.3898725940609566E-5    0.013398701583242245        8.650251380406004E-7     2.5711775374741585E-7
0.005392698840406284      2.2599150627073045E-5    0.02314141836510434         8.785486083300808E-7     2.4891085585018894E-7
0.005385832601096293      1.1299575313536522E-5    0.012383656900627971        8.92121850113316E-7      2.407029625166249E-7
0.005406201809512672      2.2599150627073045E-5    0.017789776237134187        8.78843910501671E-7      2.653647694695275E-7
0.005399335570202681      1.1299575313536522E-5    0.005540850558635347        8.924088824595173E-7     2.571578410844826E-7
0.0053924693308926895     0                        -0.02197263620396429        9.060236259111189E-7     2.489499172631006E-7
0.005412838539309069      1.1299575313536522E-5    0.0070656296674145355       8.926844377393958E-7     2.735979559040142E-7
0.005405972299999078      0                        -0.021038129617959513       9.062909113656085E-7     2.653909970311514E-7
0.005419475269105467      0                        -0.006408956193348451       9.065467197537752E-7     2.8181731305087615E-7
0.005373828640447266      3.190249811526629E-5     -0.0068246579346454145      8.668186063272122E-7     2.2570154051394928E-7
0.005379830620771779      2.160103671440141E-5     0.008937715358936726        8.79461287328053E-7      2.332182022180995E-7
0.00538669686008177       3.2900612027937926E-5    -0.018324468108877588       8.659353499337554E-7     2.414274827810404E-7
0.005220858267203899      7.435520763283835E-6     54.48418403887964           8.913646080668623E-7     3.728076638312015E-9
0.005216716534407797      1.487104152656767E-5     41.23529238148578           8.843822709148529E-7     6.9958458509335196E-9
0.005212574801611696      2.2306562289851507E-5    27.622970082753607          8.776646137588139E-7     9.803307637864512E-9
0.005216666666666668      0                        39.852683825427505          8.963538720284952E-7     0
0.005212524933870566      7.435520763283835E-6     30.46736114257408           8.910447215480978E-7     2.338286637588105E-9
0.005208383201074464      1.487104152656767E-5     23.38271978236586           8.860002510636708E-7     4.216265849485698E-9
0.005208333333333334      0                        25.809270966077108          8.940797356351407E-7     0
0.005204191600537232      7.435520763283835E-6     18.522108845968404          8.907084518223261E-7     9.484966368641942E-10
0.0052000000000000015     0                        14.115716763627605          8.917892160347795E-7     0
0.005221125705050357      2.252744642704913E-5     23.21648893291657           8.740800927581552E-7     1.723041690734903E-8
0.005225267437846459      1.5091925663765292E-5    37.32885273937368           8.801146920056333E-7     1.780254266621773E-8
0.005229676608489019      2.2748330564246748E-5    17.519284109617523          8.714734463871566E-7     2.8427451751997848E-8
0.005224988011513606      4.465195765591351E-5     17.952589250211464          8.527311042189254E-7     3.271947038860881E-8
0.005220850274879636      3.7203492533892844E-5    20.681315734249477          8.608954088424625E-7     2.5040191708855267E-8
0.005216712538245666      2.9755027411872176E-5    24.210051336745153          8.692065786890918E-7     1.74014707919405E-8
0.0052294011783182975     3.742437667109046E-5     18.823764314979364          8.578346487103734E-7     3.4721645203550296E-8
0.005225263441684327      2.9975911549069795E-5    22.554501915774814          8.658839381227183E-7     2.5955752174030282E-8
0.005233814345122988      3.0196795686267417E-5    18.067752138341568          8.635391721860041E-7     3.827995913128434E-8
0.005260413489375764      3.1823867261953994E-5    3.3185446164450534          8.613599030279487E-7     7.922277421000903E-8
0.005255704594533456      3.933342097392076E-5     5.422513298955298           8.530778298846644E-7     7.285183556265476E-8
0.005250995699691149      4.684297468588754E-5     7.803769622117574           8.45543117783383E-7      6.705911870397015E-8
0.005251448531945634      3.1375500979106375E-5    6.465289815132962           8.615197857835916E-7     6.60025423067137E-8
0.005246739637103325      3.888505469107314E-5     8.478552165805292           8.537916618974681E-7     5.960919365078116E-8
0.005242483574515502      3.0927134696258755E-5    9.965555676419743           8.618921808516128E-7     5.172095814006141E-8
0.005233657240906121      4.5382296665904855E-5    15.406928832774463          8.496022977922806E-7     4.329504974088079E-8
0.005238070407710812      3.815471568108181E-5     13.374312726957637          8.554467498298555E-7     4.672993438407482E-8
0.0052423264702986345     4.6112635675896193E-5    12.018616608231088          8.472063023137665E-7     5.474159917933458E-8
0.005237337847400546      6.701344752463229E-5     10.366684241553441          8.279758622147743E-7     5.432352415473302E-8
0.005233221235438233      5.9559617568392695E-5    11.937773139889792          8.361152642676713E-7     4.749342924006738E-8
0.005229104623475919      5.21057876121531E-5      14.290449902786424          8.443670116023882E-7     4.029207798469265E-8
0.005241890464830748      6.028995657838404E-5     10.35015691802151           8.335747432386042E-7     5.782690163397068E-8
0.005237773852868433      5.2836126622144444E-5    12.030846085908284          8.415323478745324E-7     5.0746603857780293E-8
0.005246443082260948      5.356646563213579E-5     9.556534946428993           8.394304950948071E-7     6.207209981704972E-8
0.005288912543834751      3.418655592747521E-5     0.6504149612810926          8.605423303426943E-7     1.1889540129159476E-7
0.0052836703919923456     4.222663630812784E-5     1.4964506560480724          8.50857028937171E-7      1.1178060197744153E-7
0.005278428240149939      5.026671668878046E-5     2.6746819740063326          8.415851898586794E-7     1.0474289486542778E-7
0.005279235106681723      3.357583526186342E-5     1.448529045546442           8.60648631851203E-7      1.059536485773384E-7
0.005273992954839316      4.1615915642516046E-5    2.7695249162978195          8.51032574551453E-7      9.858774174759065E-8
0.005269557669528694      3.296511459625163E-5     2.637810912202461           8.60633957002972E-7      9.239742167445906E-8
0.00526013987984408       4.798422202018518E-5     6.035554435887169           8.440225627021746E-7     7.978495738539298E-8
0.005264848774686387      4.047466830821841E-5     4.218506774260053           8.519545793315718E-7     8.580207863559119E-8
0.005269284059997009      4.9125469354482825E-5    4.41426163544893            8.4270325339394E-7       9.234621610587885E-8
0.005308464056615749      5.432939556043231E-5     0.9590465373553322          8.379324623829989E-7     1.4392591951849133E-7
0.005303694269636219      4.493508888922907E-5     1.0319415686080187          8.486389378444706E-7     1.3795895200475861E-7
0.005298924482656689      3.554078221802583E-5     0.8595062644836559          8.595418150752205E-7     1.3201274310122398E-7
0.005314290596900488      4.562611126079901E-5     0.5857557903941828          8.483266108138509E-7     1.5149548318721334E-7
0.005309520809920957      3.623180458959577E-5     0.43670321765257464         8.592682572913549E-7     1.456434849684555E-7
0.005320117137185227      3.6922826961165707E-5    0.27890714924043947         8.589270191606951E-7     1.590600121561538E-7
0.005288440178971876      5.1620942979331085E-5    1.9044713754803704          8.40363444876613E-7      1.1805347743622597E-7
0.005293682330814281      4.358086259867845E-5     1.2512207285634727          8.497458988124011E-7     1.2499456416765524E-7
0.005298452117793812      5.2975169269881694E-5    1.3444046275935186          8.391458690513862E-7     1.311144856539138E-7
0.005341435709171857      5.913512497907933E-5     0.40230145974065884         8.333187447514091E-7     1.8531850991228888E-7
0.00533627169860456       4.882993087323035E-5     0.4280711016282506          8.453326036839365E-7     1.7906094689828094E-7
0.0053311076880372624     3.852473676738137E-5     0.3293951460613616          8.574709179079773E-7     1.7282794573595554E-7
0.0053479439463854925     4.972487805358444E-5     0.26905108578866055         8.446583237340074E-7     1.935351930040165E-7
0.005342779935818194      3.941968394773546E-5     0.17237321608394746         8.568104828014481E-7     1.8732816267332825E-7
0.005354452183599127      4.031463112808955E-5     0.13775601970633128         8.56110377890528E-7      2.01742332015301E-7
0.005319454607467786      5.593130536664799E-5     0.6724449752031667          8.364232269403723E-7     1.5786460972658693E-7
0.005325281147752524      4.722802106701468E-5     0.4547068543464457          8.468439424661788E-7     1.6534879508116201E-7
0.005330445158319821      5.753321517286365E-5     0.4706010716121064          8.348853210631756E-7     1.716621398578528E-7
0.005442138138645487      3.7247047561894294E-5    0.006848765306204024        8.618132145972464E-7     3.089153217133408E-7
0.005434583848798814      2.4831365041262866E-5    0.011506081821718292        8.766984232503032E-7     2.9987363359728533E-7
0.0054270295589521405     1.2415682520631433E-5    0.005972229523836494        8.916095916358126E-7     2.9084096404313037E-7
0.005449440867353207      2.4831365041262866E-5    0.009407456739647602        8.769655304888141E-7     3.1794088197246536E-7
0.005441886577506534      1.2415682520631433E-5    0.0029664811171260345       8.918824137801373E-7     3.0890139226043874E-7
0.00543433228765986       0                        -0.011457773567328524       9.068252568039134E-7     2.998709211103127E-7
0.005456743596060927      1.2415682520631433E-5    0.003759255675452022        8.921443023269349E-7     3.269631080145847E-7
0.005449189306214254      0                        -0.011005712359221936       9.070928602565248E-7     3.1792581670658705E-7
0.005464046324768647      0                        -0.0034274431942192926      9.07349530111609E-7      3.3598199983969893E-7
0.005413756099359346      3.501483314770447E-5     -0.005416090382399664       8.639748800976742E-7     2.743934440441444E-7
0.005420392829155743      2.3715257834167956E-5    0.004299352101497988        8.777813584784163E-7     2.8262411868744986E-7
0.005427947119002416      3.613094035479939E-5     -0.010491008784018475       8.629042389498896E-7     2.9165930003278606E-7
0.005489022801682353      4.094560285224053E-5     0.003897508147930778        8.580808390366598E-7     3.659242399810614E-7
0.005480697309377785      2.7297068568160355E-5    0.006373090336282238        8.744904971254153E-7     3.5592796868172597E-7
0.005472371817073216      1.3648534284080178E-5    0.0032543755602554864       8.909133941503982E-7     3.459472219679384E-7
0.005497044158608726      2.7297068568160355E-5    0.005236807890090601        8.747368031809171E-7     3.758175491598953E-7
0.005488718666304158      1.3648534284080178E-5    0.0017069838500900895       8.911740889237927E-7     3.6582489812427377E-7
0.005480393173999589      0                        -0.006345895740526055       9.076246136028955E-7     3.558477716742001E-7
0.005505065515535099      1.3648534284080178E-5    0.002073338627305887        8.914234172830563E-7     3.8571346941984704E-7
0.00549674002323053       0                        -0.006187352675881351       9.078883306800518E-7     3.7572443864793953E-7
0.005513086872461472      0                        -0.001961474974936033       9.081406813430772E-7     3.9561200076091694E-7
0.005457766359657776      3.8479899325343046E-5    -0.0034664760513859858      8.605861208358739E-7     3.2791337172389E-7
0.005465069088365496      2.6064216804711607E-5    0.0022845189871087777       8.757365295198597E-7     3.3693196395441683E-7
0.0054733945806700645     3.9712751088791783E-5    -0.005979624881082775       8.593419956490118E-7     3.469163444797969E-7
0.005377841194425253      6.470861544178006E-5     0.1886416564515928          8.275786073887038E-7     2.3013553579757331E-7
0.005372214269887756      5.34405383620516E-5      0.19567267959154558         8.408737955069496E-7     2.2338094293919014E-7
0.00536658734535026       4.2172461282323125E-5    0.14356245262684458         8.542392287843719E-7     2.1664907332204648E-7
0.005385082489522261      5.443865227472323E-5     0.13326963542854176         8.399894682888281E-7     2.391333015850326E-7
0.005379455564984763      4.3170575194994765E-5    0.0789861257086806          8.53368914728432E-7      2.324060594288712E-7
0.005392323784619268      4.41686891076664E-5      0.0699538661647343          8.524716451727936E-7     2.481273742349801E-7
0.005353570870922989      6.099295513331291E-5     0.2760453281241696          8.314341098731989E-7     2.0032567889594453E-7
0.005360079108136624      5.1582708207818014E-5    0.197514866064435           8.427804317418244E-7     2.0849214814921708E-7
0.005365706032674121      6.285078528754648E-5     0.1929991424942969          8.295207307522972E-7     2.152646875243727E-7
0.005418170499946566      7.10738596845791E-5      0.09535714218261952         8.20708942206513E-7      2.793571071572391E-7
0.005411968693203136      5.8682148436589265E-5    0.09720506900410161         8.354425853503359E-7     2.7192206750912143E-7
0.005405766886459705      4.6290437188599415E-5    0.06935576461504214         8.50214650628365E-7      2.64508949705847E-7
0.005426159712846206      5.979825564368417E-5     0.06955741232780982         8.343579308805912E-7     2.8920733846779815E-7
0.005419957906102776      4.740654439569432E-5     0.0395905920317064          8.491471944220297E-7     2.8178943033354964E-7
0.005434148925745846      4.852265160278923E-5     0.0370085506742555          8.480593550108356E-7     2.990600766531654E-7
0.005391284296265691      6.683036352271308E-5     0.12654938458728987         8.253131559695416E-7     2.465711929751794E-7
0.005398525591362698      5.656040035565625E-5     0.09525368852256492         8.377282453070328E-7     2.555419179092691E-7
0.005404727398106129      6.895211160364608E-5     0.08871823236971427         8.230232675754781E-7     2.629783834284013E-7
0.005175000000000001      0                        4.769815799758732           8.890289641524568E-7     0
0.005183333333333335      0                        7.50391292299481            8.897719086596888E-7     0
0.005191666666666667      0                        11.264033697367864          8.906919926204628E-7     0
0.005179147491231162      7.407798795924208E-6     6.78305376261414            8.88580942987021E-7      2.425008085223561E-10
0.005187480824564496      7.407798795924208E-6     10.19568096436829           8.890994058693283E-7     5.056527381560781E-10
0.0051958141578978285     7.407798795924208E-6     13.610243767283661          8.897950082051777E-7     7.688046677898001E-10
0.005183294982462323      1.4815597591848416E-5    8.796258312404134           8.86273154622081E-7      1.0125387590356767E-9
0.005191628315795657      1.4815597591848416E-5    11.929841442489266          8.865671358794635E-7     1.5388426183031208E-9
0.005187442473693485      2.2223396387772626E-5    11.044268044802346          8.821055990576368E-7     2.3101138515399617E-9
0.005195819916332889      2.2251118355132255E-5    16.81549145122124           8.813698159231612E-7     3.5197095750778653E-9
0.005200005758435061      1.4843319559208044E-5    18.327817492123927          8.866559661208E-7        2.2334864646092694E-9
0.005204197358972292      2.227884032249188E-5     21.97960701807465           8.7988948749022E-7       6.017440837186048E-9
0.0051915352735827335     2.9583238844086362E-5    13.432792226756055          8.759805293063296E-7     4.743926331057761E-9
0.005199912716222136      2.961096081144599E-5     17.457018772362694          8.745114130080968E-7     7.3059100842761565E-9
0.00520829015886154       2.9638682778805614E-5    21.797966767953092          8.722977514113985E-7     1.1156029376064831E-8
0.005195628073471981      3.6943081300400096E-5    14.60518365540129           8.688189430447293E-7     8.252208668701013E-9
0.005204005516111385      3.697080326775972E-5     17.884047762624316          8.666164935827395E-7     1.2166580451599901E-8
0.005199720873361229      4.430292375671383E-5     14.89883398272331           8.60620840272836E-7      1.2834960864469717E-8
0.005208143252745355      4.4419268389780394E-5    15.737703983800033          8.581166093475127E-7     1.79332564467187E-8
0.005212427895495511      3.708714790082628E-5     19.770879880351405          8.638187917589246E-7     1.7838448950662225E-8
0.00521656563212948       4.453561302284695E-5     16.6862842885671            8.554866973295424E-7     2.4561426288098396E-8
0.0052111303544086765     6.467767169279629E-5     12.389845840299865          8.369430565534597E-7     2.7907663519988007E-8
0.0052073271940595274     5.7886089047435476E-5    13.490016761106329          8.450352049055161E-7     2.2607618186854287E-8
0.005203524033710378      5.1094506402074654E-5    14.347711366866765          8.529277994786413E-7     1.7583383968348188E-8
0.005215749573443653      5.800243368050204E-5     14.330445080753321          8.42451125907616E-7      2.932454358070688E-8
0.005211946413094504      5.121085103514121E-5     15.194341798418654          8.503836445170299E-7     2.3490994456398977E-8
0.005220368792478629      5.132719566820777E-5     16.12019582115804           8.477138084627711E-7     3.092847920358048E-8
0.005224485404440943      5.8781025624447366E-5    13.377459880350171          8.391535184654578E-7     3.794469448228305E-8
0.005228602016403256      6.623485558068695E-5     10.916497117020672          8.307055737499644E-7     4.4589653420276496E-8
0.005219866185405967      6.545626363674162E-5     11.658095407351668          8.336946385295262E-7     3.5784366542028164E-8
0.005261866294596441      7.194869240800436E-5     5.933065138979866           8.192503082259617E-7     8.494672864290079E-8
0.005258242762961343      6.358011983396542E-5     6.1741618254571335          8.282021202379284E-7     7.912815151853902E-8
0.005254619231326247      5.521154725992647E-5     6.714342163328302           8.369663900904022E-7     7.316561487222881E-8
0.005267386943114273      6.472136716826306E-5     4.707974652044475           8.263446001272125E-7     9.109586604259677E-8
0.0052637634114791765     5.635279459422412E-5     5.369337590256437           8.352773524944401E-7     8.55123914749691E-8
0.0052729075916321064     5.749404192852176E-5     3.6831217651515367          8.337895606714516E-7     9.769458811677242E-8
0.005245513996465845      6.865852915242298E-5     9.37169740701696            8.247670613888416E-7     6.426376808047091E-8
0.005250066613896045      6.193503820617472E-5     8.171316512051465           8.307382903234354E-7     6.834378112442917E-8
0.005253690145531143      7.030361078021367E-5     7.878846510081284           8.218585433925705E-7     7.447150290986017E-8
0.005222887599960967      8.428371863799607E-5     8.948996345821879           8.133941002689916E-7     4.4254138687487E-8
0.005218968518110204      7.774836965626281E-5     9.969009394158585           8.212143021103523E-7     3.884784550976641E-8
0.00521504943625944       7.121302067452955E-5     11.100778478597455          8.290639542051749E-7     3.33990204539334E-8
0.005227704349107494      7.852696160020814E-5     9.726958347247486           8.18310038679056E-7      4.729210297044294E-8
0.0052237852672567305     7.199161261847489E-5     10.6664251755199            8.2598761347756E-7       4.1559500695291755E-8
0.00523252109825402       7.277020456242022E-5     10.188683195481012          8.231706259943167E-7     5.0648564792858274E-8
0.005239613536492794      7.574470361503615E-5     8.66459329583249            8.186354832460663E-7     5.9136246779141476E-8
0.005247789685558092      7.738978524282683E-5     7.6844850677688346          8.154789289549536E-7     6.884851345173342E-8
0.00525596583462339       7.903486687061751E-5     6.457272985248503           8.126226574935027E-7     7.882827102797673E-8
0.0052418892255850415     8.447595970543999E-5     7.54781158330835            8.091680391670558E-7     6.371280739163169E-8
0.005250065374650339      8.612104133323067E-5     6.730493522293247           8.060637314107631E-7     7.319709681107769E-8
0.005244164914677289      9.320721579584384E-5     6.889484014088535           7.995735299777427E-7     6.805320599220364E-8
0.0052299800381997415     8.7258217690612E-5       8.52705284522645            8.086301760769043E-7     5.192796262490707E-8
0.005234796787346267      8.150146065282406E-5     8.728163975605561           8.136605052088871E-7     5.5372855932294575E-8
0.005237072476438515      9.02327167432279E-5      7.803476646996021           8.040233193131546E-7     5.98609850598126E-8
0.005289961405801919      7.821984397733605E-5     2.878980616410844           8.11021514757595E-7      1.2089422808173506E-7
0.005286117017251259      6.890213488115086E-5     2.9376516089094795          8.212777616260939E-7     1.1551000394754821E-7
0.005282272628700599      5.958442578496566E-5     2.9131211725513673          8.314656533264553E-7     1.101262262087791E-7
0.005296128956073196      7.025636117170147E-5     2.0441366986661635          8.197110521530445E-7     1.283760982543116E-7
0.0052922845675225354     6.0938652075516276E-5    2.158498360660773           8.300714260988976E-7     1.2321456464755993E-7
0.005302296506344472      6.22928783660669E-5      1.4213052796027763          8.28681368028179E-7      1.3605332873323034E-7
0.005271231331664934      7.403907626444826E-5     5.00315502755706            8.163555386918516E-7     9.695739040131486E-8
0.005276751980182766      6.681175102470695E-5     3.867718698631022           8.237352616876593E-7     1.0331701596780717E-7
0.005280596368733426      7.612946012089215E-5     4.025148573964241           8.136126075357293E-7     1.0893989021425961E-7
0.005320862243891333      8.513831123664416E-5     1.3878204678035795          8.029342120932291E-7     1.597647561014309E-7
0.005316729514799472      7.486867267790688E-5     1.4106153734623588          8.145840039351533E-7     1.5444551035556747E-7